#         Time        auto2
  1.20005e-06            0
  2.64017e-06            0
  4.36833e-06            0
  6.44211e-06            0
  8.93055e-06            0
  1.19165e-05            0
   1.5499e-05            0
  1.97972e-05            0
  2.49549e-05-4.95389e-318
  3.11429e-05-9.49214e-306
  3.85657e-05-3.82895e-294
  4.74757e-05-3.58786e-283
  5.81659e-05-7.96264e-273
  7.09941e-05-4.14932e-263
  8.63879e-05-4.86956e-254
  0.000104849-1.14012e-245
  0.000126986-4.20695e-238
  0.000153526-1.50884e-231
  0.000185392-6.52452e-227
  0.000223581-1.91544e-222
   0.00026948-1.11376e-218
  0.000324454 -3.2647e-215
  0.000390274-4.78899e-212
  0.000469043 3.88697e-209
  0.000563408 4.93232e-205
  0.000677102 1.88782e-201
  0.000814204 5.33125e-198
  0.000978236 1.09621e-194
   0.00117436 1.27139e-191
   0.00140661 -1.3562e-188
   0.00168382-1.35946e-184
   0.00201647-5.52688e-181
   0.00241564-1.95607e-177
   0.00288967-8.01553e-174
   0.00348219-6.47643e-170
    0.0042064-1.12608e-165
   0.00503405-3.70742e-161
   0.00602724-3.02399e-156
   0.00735149 1.39642e-150
   0.00867575 1.01483e-144
         0.01 6.41326e-140
    0.0116667 1.04774e-134
      0.01375 2.20696e-128
    0.0158333-2.83381e-122
    0.0179167-1.76996e-117
         0.02-1.58932e-113
       0.0225  5.1589e-110
        0.025 6.79406e-105
       0.0275 2.22207e-101
         0.03  6.48479e-99
    0.0333333  5.39149e-95
    0.0366667  2.81367e-91
         0.04  2.02543e-88
    0.0433333  3.31839e-86
    0.0466667  2.61538e-84
         0.05  1.05514e-82
        0.055  1.34245e-80
         0.06  5.12397e-78
        0.065   1.0621e-76
         0.07  3.61698e-75
        0.075  3.42656e-74
         0.08 -2.06542e-73
        0.085  2.23285e-74
         0.09  1.48106e-73
        0.095 -3.30169e-73
          0.1 -8.70503e-73
        0.105 -9.53029e-73
         0.11            0
        0.115            0
         0.12            0
        0.125            0
         0.13            0
        0.135            0
         0.14            0
        0.145            0
         0.15            0
        0.155            0
         0.16            0
        0.165            0
         0.17            0
        0.175            0
         0.18            0
        0.185            0
         0.19            0
        0.195   2.8871e-73
          0.2 -9.17635e-73
        0.205 -4.68905e-72
         0.21  -1.2773e-71
        0.215 -2.39479e-71
         0.22 -2.56838e-71
        0.225  1.57139e-71
         0.23  1.48729e-70
        0.235  3.70798e-70
         0.24   3.4953e-70
        0.245  2.35562e-70
         0.25  2.31509e-68
        0.255   2.0625e-67
         0.26  1.13127e-66
        0.265  7.66423e-66
         0.27  4.69719e-65
        0.275  2.01017e-64
         0.28  6.00205e-64
        0.285  1.28336e-63
         0.29   2.0346e-63
        0.295  2.52762e-63
          0.3    2.678e-63
        0.305  2.68959e-63
         0.31            0
        0.315            0
         0.32            0
        0.325            0
         0.33            0
        0.335            0
         0.34            0
        0.345            0
         0.35            0
        0.355            0
         0.36            0
        0.365            0
         0.37            0
        0.375            0
         0.38            0
        0.385            0
         0.39            0
        0.395   6.7045e-65
          0.4 -7.53621e-64
        0.405 -3.25362e-63
         0.41 -8.67637e-63
        0.415 -1.77435e-62
         0.42 -2.87141e-62
        0.425 -3.31243e-62
         0.43 -4.53179e-63
        0.435   1.3399e-61
         0.44  5.97137e-61
        0.445   1.9459e-60
         0.45   5.5323e-60
        0.455   1.4385e-59
         0.46  3.48576e-59
        0.465  7.76006e-59
         0.47  1.47356e-58
        0.475  2.05369e-58
         0.48  1.27766e-58
        0.485 -2.39859e-58
         0.49 -9.28158e-58
        0.495 -1.73041e-57
          0.5 -2.29712e-57
