#         Time        auto1        auto2
  1.20005e-06            (0 0.0100024 0)            (2.37328e-07 0.00998603 -3.00417e-07)
  2.64017e-06            (0 0.0100052 0)            (2.26003e-07 0.00999309 -1.0682e-07)
  4.36833e-06            (0 0.0100086 0)            (1.24545e-07 0.0099969 -1.22882e-07)
  6.44211e-06            (0 0.0100127 0)            (1.00568e-07 0.0100015 -2.49431e-07)
  8.93055e-06            (0 0.0100176 0)            (7.62396e-08 0.0100069 -2.42908e-07)
  1.19165e-05            (0 0.0100235 0)            (7.59405e-08 0.0100128 -2.46979e-07)
   1.5499e-05            (0 0.0100306 0)            (7.13581e-08 0.0100199 -2.49664e-07)
  1.97972e-05            (0 0.0100391 0)            (6.82487e-08 0.0100284 -2.51348e-07)
  2.49549e-05            (0 0.0100493 0)            (6.82392e-08 0.0100387 -2.51633e-07)
  3.11429e-05            (0 0.0100615 0)            (6.61085e-08 0.0100509 -2.52608e-07)
  3.85657e-05            (0 0.0100761 0)            (6.48415e-08 0.0100654 -2.5347e-07)
  4.74757e-05            (0 0.0100937 0)            (6.53151e-08 0.010083 -2.54225e-07)
  5.81659e-05            (0 0.0101148 0)            (6.79392e-08 0.010104 -2.55281e-07)
  7.09941e-05            (0 0.0101401 0)            (6.99844e-08 0.0101293 -2.56414e-07)
  8.63879e-05            (0 0.0101705 0)            (7.29819e-08 0.0101596 -2.5627e-07)
  0.000104849            (0 0.010207 0)            (7.46585e-08 0.010196 -2.57801e-07)
  0.000126986            (0 0.0102507 0)            (7.77324e-08 0.0102396 -2.58488e-07)
  0.000153526            (0 0.010303 0)            (8.05804e-08 0.0102919 -2.59052e-07)
  0.000185392            (0 0.0103659 0)            (8.4944e-08 0.0103547 -2.59993e-07)
  0.000223581            (0 0.0104413 0)            (8.83881e-08 0.0104299 -2.62041e-07)
   0.00026948            (0 0.0105319 0)            (9.15545e-08 0.0105204 -2.64121e-07)
  0.000324454            (0 0.0106404 0)            (9.47707e-08 0.0106288 -2.65666e-07)
  0.000390274            (0 0.0107704 0)            (9.86249e-08 0.0107585 -2.68845e-07)
  0.000469043            (0 0.0109258 0)            (1.02733e-07 0.0109137 -2.73072e-07)
  0.000563408            (0 0.0111121 0)            (1.07744e-07 0.0110997 -2.77611e-07)
  0.000677102            (0 0.0113364 0)            (1.14046e-07 0.0113238 -2.83389e-07)
  0.000814204            (0 0.011607 0)            (1.204e-07 0.011594 -2.90578e-07)
  0.000978236            (0 0.0119307 0)            (1.28052e-07 0.0119172 -2.99161e-07)
   0.00117436            (0 0.0123176 0)            (1.36116e-07 0.0123036 -3.09104e-07)
   0.00140661            (0 0.0127756 0)            (1.45465e-07 0.012761 -3.19704e-07)
   0.00168382            (0 0.0133222 0)            (1.55865e-07 0.0133068 -3.31608e-07)
   0.00201647            (0 0.0139777 0)            (1.67857e-07 0.0139615 -3.4461e-07)
   0.00241564            (0 0.0147637 0)            (1.82573e-07 0.0147465 -3.59769e-07)
   0.00288967            (0 0.0156961 0)            (1.98335e-07 0.0156776 -3.79398e-07)
   0.00348219            (0 0.0168599 0)            (2.19198e-07 0.0168392 -4.03222e-07)
    0.0042064            (0 0.0182789 0)            (2.4012e-07 0.0182566 -4.31354e-07)
   0.00503405            (0 0.0198955 0)            (2.61814e-07 0.0198706 -4.61006e-07)
   0.00602724            (0 0.0218263 0)            (2.84568e-07 0.0217984 -4.94058e-07)
   0.00735149            (0 0.0243826 0)            (3.16887e-07 0.0243495 -5.42168e-07)
   0.00867575            (0 0.026914 0)            (3.46541e-07 0.0268768 -5.86431e-07)
         0.01            (0 0.0294161 0)            (3.54806e-07 0.0293749 -6.00285e-07)
    0.0116667            (0 0.0325169 0)            (3.79196e-07 0.0324688 -6.57963e-07)
      0.01375            (0 0.0363052 0)            (4.02964e-07 0.0362503 -7.16628e-07)
    0.0158333            (0 0.0399808 0)            (4.25945e-07 0.0399187 -7.54096e-07)
    0.0179167            (0 0.043528 0)            (4.24465e-07 0.0434586 -7.72638e-07)
         0.02            (0 0.0469316 0)            (4.17231e-07 0.0468559 -7.88502e-07)
       0.0225            (0 0.050806 0)            (4.03282e-07 0.0507218 -8.04237e-07)
        0.025            (0 0.0544288 0)            (3.87619e-07 0.054337 -8.34307e-07)
       0.0275            (0 0.0577777 0)            (3.42394e-07 0.0576791 -8.44201e-07)
         0.03            (0 0.060832 0)            (2.83615e-07 0.0607275 -8.44124e-07)
    0.0333333            (0 0.064414 0)            (2.37375e-07 0.0643027 -8.42917e-07)
    0.0366667            (0 0.0673998 0)            (1.93419e-07 0.0672843 -8.12539e-07)
         0.04            (0 0.0697566 0)            (1.11408e-07 0.0696393 -7.16897e-07)
    0.0433333            (0 0.0714588 0)            (2.10527e-09 0.0713416 -6.95184e-07)
    0.0466667            (0 0.0724877 0)            (-1.13027e-07 0.0723724 -7.0698e-07)
         0.05            (0 0.0728319 0)            (-2.42979e-07 0.0727194 -6.52337e-07)
        0.055            (0 0.0720583 0)            (-4.08576e-07 0.0719522 -5.31238e-07)
         0.06            (0 0.0697566 0)            (-5.74085e-07 0.0696586 -4.11863e-07)
        0.065            (0 0.0659836 0)            (-7.39144e-07 0.065895 -3.74352e-07)
         0.07            (0 0.060832 0)            (-9.5424e-07 0.0607562 -1.75461e-07)
        0.075            (0 0.0544288 0)            (-1.138e-06 0.0543629 2.18875e-07)
         0.08            (0 0.0469316 0)            (-1.21264e-06 0.0468742 1.5293e-07)
        0.085            (0 0.0385251 0)            (-1.35768e-06 0.0384769 -9.42966e-08)
         0.09            (0 0.0294161 0)            (-1.68837e-06 0.0293794 1.92278e-07)
        0.095            (0 0.0198291 0)            (-1.7462e-06 0.0198031 3.91579e-07)
          0.1            (0 0.01 0)            (-1.71243e-06 0.00998077 6.33474e-07)
        0.105            (0 0.000170933 0)            (-1.6376e-06 0.000161929 8.98452e-07)
         0.11            (0 -0.00941611 0)            (-1.81149e-06 -0.00941427 1.04893e-06)
        0.115            (0 -0.0185251 0)            (-1.98568e-06 -0.0185137 1.12227e-06)
         0.12            (0 -0.0269316 0)            (-1.80433e-06 -0.0269181 9.41053e-07)
        0.125            (0 -0.0344288 0)            (-1.91333e-06 -0.0344115 1.55744e-06)
         0.13            (0 -0.040832 0)            (-1.97136e-06 -0.0408115 1.78091e-06)
        0.135            (0 -0.0459836 0)            (-2.19496e-06 -0.0459605 2.21208e-06)
         0.14            (0 -0.0497566 0)            (-2.20571e-06 -0.0497329 2.36941e-06)
        0.145            (0 -0.0520583 0)            (-2.31265e-06 -0.0520331 2.53105e-06)
         0.15            (0 -0.0528319 0)            (-2.32857e-06 -0.0528061 2.48125e-06)
        0.155            (0 -0.0520583 0)            (-2.2973e-06 -0.0520336 2.35991e-06)
         0.16            (0 -0.0497566 0)            (-2.20544e-06 -0.0497342 2.3058e-06)
        0.165            (0 -0.0459836 0)            (-2.08095e-06 -0.0459654 2.19498e-06)
         0.17            (0 -0.040832 0)            (-1.92374e-06 -0.040819 2.04813e-06)
        0.175            (0 -0.0344288 0)            (-1.67917e-06 -0.0344237 1.60445e-06)
         0.18            (0 -0.0269316 0)            (-1.54966e-06 -0.0269354 1.5281e-06)
        0.185            (0 -0.0185251 0)            (-1.39872e-06 -0.0185357 1.45684e-06)
         0.19            (0 -0.00941611 0)            (-1.25487e-06 -0.00943552 1.30579e-06)
        0.195            (0 0.000170933 0)            (-1.12611e-06 0.00014165 1.19754e-06)
          0.2            (0 0.01 0)            (-7.94547e-07 0.0099383 9.62875e-07)
        0.205            (0 0.0198291 0)            (-6.57007e-07 0.0197534 8.81512e-07)
         0.21            (0 0.0294161 0)            (-5.96811e-07 0.0293328 9.51125e-07)
        0.215            (0 0.0385251 0)            (-7.85858e-07 0.0384351 1.40287e-06)
         0.22            (0 0.0469316 0)            (-7.29481e-07 0.0468368 9.4393e-07)
        0.225            (0 0.0544288 0)            (-7.21657e-07 0.0543343 3.56316e-07)
         0.23            (0 0.060832 0)            (-6.73441e-07 0.0607364 7.74753e-08)
        0.235            (0 0.0659836 0)            (-9.00686e-07 0.0658892 -2.41483e-07)
         0.24            (0 0.0697566 0)            (-1.0122e-06 0.069666 -1.66872e-07)
        0.245            (0 0.0720583 0)            (-1.24662e-06 0.0719738 -1.36386e-07)
         0.25            (0 0.0728319 0)            (-1.39338e-06 0.0727554 3.19866e-08)
        0.255            (0 0.0720583 0)            (-1.49746e-06 0.0719917 1.88547e-07)
         0.26            (0 0.0697566 0)            (-1.59971e-06 0.0697007 2.66604e-07)
        0.265            (0 0.0659836 0)            (-1.65e-06 0.0659389 3.42802e-07)
         0.27            (0 0.060832 0)            (-1.74893e-06 0.0608015 5.16873e-07)
        0.275            (0 0.0544288 0)            (-1.91682e-06 0.0544095 8.19139e-07)
         0.28            (0 0.0469316 0)            (-1.95979e-06 0.0469201 1.04549e-06)
        0.285            (0 0.0385251 0)            (-2.11063e-06 0.0385222 7.72024e-07)
         0.29            (0 0.0294161 0)            (-2.33224e-06 0.0294238 2.84562e-07)
        0.295            (0 0.0198291 0)            (-2.27962e-06 0.0198469 8.69856e-07)
          0.3            (0 0.01 0)            (-2.29608e-06 0.0100228 1.042e-06)
        0.305            (0 0.000170933 0)            (-2.30966e-06 0.000201387 1.3746e-06)
         0.31            (0 -0.00941611 0)            (-2.4122e-06 -0.00937464 1.68715e-06)
        0.315            (0 -0.0185251 0)            (-2.72486e-06 -0.0184776 1.71808e-06)
         0.32            (0 -0.0269316 0)            (-2.73881e-06 -0.0268845 1.6222e-06)
        0.325            (0 -0.0344288 0)            (-2.76289e-06 -0.03438 2.08314e-06)
         0.33            (0 -0.040832 0)            (-2.79089e-06 -0.0407822 2.28268e-06)
        0.335            (0 -0.0459836 0)            (-2.88467e-06 -0.0459341 2.51774e-06)
         0.34            (0 -0.0497566 0)            (-2.86352e-06 -0.0497069 2.73661e-06)
        0.345            (0 -0.0520583 0)            (-2.90152e-06 -0.0520084 2.71132e-06)
         0.35            (0 -0.0528319 0)            (-2.90057e-06 -0.0527827 2.75781e-06)
        0.355            (0 -0.0520583 0)            (-2.89115e-06 -0.0520116 2.82135e-06)
         0.36            (0 -0.0497566 0)            (-2.84654e-06 -0.0497134 2.8169e-06)
        0.365            (0 -0.0459836 0)            (-2.72581e-06 -0.0459459 2.75125e-06)
         0.37            (0 -0.040832 0)            (-2.5561e-06 -0.0408006 2.53639e-06)
        0.375            (0 -0.0344288 0)            (-2.28317e-06 -0.0344064 2.17105e-06)
         0.38            (0 -0.0269316 0)            (-2.23187e-06 -0.0269189 2.02218e-06)
        0.385            (0 -0.0185251 0)            (-2.08877e-06 -0.0185196 1.81826e-06)
         0.39            (0 -0.00941611 0)            (-1.88622e-06 -0.0094203 1.4622e-06)
        0.395            (0 0.000170933 0)            (-1.58492e-06 0.000156257 1.54144e-06)
          0.4            (0 0.01 0)            (-1.4023e-06 0.00995172 1.36362e-06)
        0.405            (0 0.0198291 0)            (-1.20606e-06 0.0197658 1.21944e-06)
         0.41            (0 0.0294161 0)            (-1.18284e-06 0.0293442 1.11998e-06)
        0.415            (0 0.0385251 0)            (-1.24316e-06 0.0384454 1.48464e-06)
         0.42            (0 0.0469316 0)            (-1.31382e-06 0.046846 1.04697e-06)
        0.425            (0 0.0544288 0)            (-1.29616e-06 0.0543427 6.16133e-07)
         0.43            (0 0.060832 0)            (-1.32973e-06 0.0607442 2.20634e-07)
        0.435            (0 0.0659836 0)            (-1.49476e-06 0.0658967 -1.06012e-07)
         0.44            (0 0.0697566 0)            (-1.61596e-06 0.0696731 -1.45777e-07)
        0.445            (0 0.0720583 0)            (-1.74797e-06 0.0719806 -1.83455e-07)
         0.45            (0 0.0728319 0)            (-1.86957e-06 0.0727622 -8.09907e-08)
        0.455            (0 0.0720583 0)            (-1.97328e-06 0.0719986 -8.61618e-09)
         0.46            (0 0.0697566 0)            (-2.03248e-06 0.0697076 7.98616e-08)
        0.465            (0 0.0659836 0)            (-2.11184e-06 0.0659461 1.62648e-07)
         0.47            (0 0.060832 0)            (-2.27885e-06 0.0608085 3.53036e-07)
        0.475            (0 0.0544288 0)            (-2.46712e-06 0.0544161 7.32604e-07)
         0.48            (0 0.0469316 0)            (-2.5325e-06 0.0469264 1.00192e-06)
        0.485            (0 0.0385251 0)            (-2.70937e-06 0.0385283 8.87782e-07)
         0.49            (0 0.0294161 0)            (-2.81673e-06 0.0294299 3.37734e-07)
        0.495            (0 0.0198291 0)            (-2.77001e-06 0.0198529 7.32043e-07)
          0.5            (0 0.01 0)            (-2.63303e-06 0.0100284 1.03385e-06)
